+ 0.5 0 1 cbr 500 ------- 0 0.0 1.0 0 0
- 0.5 0 1 cbr 500 ------- 0 0.0 1.0 0 0
r 0.514 0 1 cbr 500 ------- 0 0.0 1.0 0 0
+ 0.55 0 1 cbr 500 ------- 0 0.0 1.0 1 1
- 0.55 0 1 cbr 500 ------- 0 0.0 1.0 1 1
r 0.564 0 1 cbr 500 ------- 0 0.0 1.0 1 1
+ 0.6 0 1 cbr 500 ------- 0 0.0 1.0 2 2
- 0.6 0 1 cbr 500 ------- 0 0.0 1.0 2 2
r 0.614 0 1 cbr 500 ------- 0 0.0 1.0 2 2
+ 0.65 0 1 cbr 500 ------- 0 0.0 1.0 3 3
- 0.65 0 1 cbr 500 ------- 0 0.0 1.0 3 3
r 0.664 0 1 cbr 500 ------- 0 0.0 1.0 3 3
+ 0.7 0 1 cbr 500 ------- 0 0.0 1.0 4 4
- 0.7 0 1 cbr 500 ------- 0 0.0 1.0 4 4
r 0.714 0 1 cbr 500 ------- 0 0.0 1.0 4 4
+ 0.75 0 1 cbr 500 ------- 0 0.0 1.0 5 5
- 0.75 0 1 cbr 500 ------- 0 0.0 1.0 5 5
r 0.764 0 1 cbr 500 ------- 0 0.0 1.0 5 5
+ 0.8 0 1 cbr 500 ------- 0 0.0 1.0 6 6
- 0.8 0 1 cbr 500 ------- 0 0.0 1.0 6 6
r 0.814 0 1 cbr 500 ------- 0 0.0 1.0 6 6
+ 0.85 0 1 cbr 500 ------- 0 0.0 1.0 7 7
- 0.85 0 1 cbr 500 ------- 0 0.0 1.0 7 7
r 0.864 0 1 cbr 500 ------- 0 0.0 1.0 7 7
+ 0.9 0 1 cbr 500 ------- 0 0.0 1.0 8 8
- 0.9 0 1 cbr 500 ------- 0 0.0 1.0 8 8
r 0.914 0 1 cbr 500 ------- 0 0.0 1.0 8 8
+ 0.95 0 1 cbr 500 ------- 0 0.0 1.0 9 9
- 0.95 0 1 cbr 500 ------- 0 0.0 1.0 9 9
r 0.964 0 1 cbr 500 ------- 0 0.0 1.0 9 9
+ 1 0 1 cbr 500 ------- 0 0.0 1.0 10 10
- 1 0 1 cbr 500 ------- 0 0.0 1.0 10 10
r 1.014 0 1 cbr 500 ------- 0 0.0 1.0 10 10
+ 1.05 0 1 cbr 500 ------- 0 0.0 1.0 11 11
- 1.05 0 1 cbr 500 ------- 0 0.0 1.0 11 11
r 1.064 0 1 cbr 500 ------- 0 0.0 1.0 11 11
+ 1.1 0 1 cbr 500 ------- 0 0.0 1.0 12 12
- 1.1 0 1 cbr 500 ------- 0 0.0 1.0 12 12
r 1.114 0 1 cbr 500 ------- 0 0.0 1.0 12 12
+ 1.15 0 1 cbr 500 ------- 0 0.0 1.0 13 13
- 1.15 0 1 cbr 500 ------- 0 0.0 1.0 13 13
r 1.164 0 1 cbr 500 ------- 0 0.0 1.0 13 13
+ 1.2 0 1 cbr 500 ------- 0 0.0 1.0 14 14
- 1.2 0 1 cbr 500 ------- 0 0.0 1.0 14 14
r 1.214 0 1 cbr 500 ------- 0 0.0 1.0 14 14
+ 1.25 0 1 cbr 500 ------- 0 0.0 1.0 15 15
- 1.25 0 1 cbr 500 ------- 0 0.0 1.0 15 15
r 1.264 0 1 cbr 500 ------- 0 0.0 1.0 15 15
+ 1.3 0 1 cbr 500 ------- 0 0.0 1.0 16 16
- 1.3 0 1 cbr 500 ------- 0 0.0 1.0 16 16
r 1.314 0 1 cbr 500 ------- 0 0.0 1.0 16 16
+ 1.35 0 1 cbr 500 ------- 0 0.0 1.0 17 17
- 1.35 0 1 cbr 500 ------- 0 0.0 1.0 17 17
r 1.364 0 1 cbr 500 ------- 0 0.0 1.0 17 17
+ 1.4 0 1 cbr 500 ------- 0 0.0 1.0 18 18
- 1.4 0 1 cbr 500 ------- 0 0.0 1.0 18 18
r 1.414 0 1 cbr 500 ------- 0 0.0 1.0 18 18
+ 1.45 0 1 cbr 500 ------- 0 0.0 1.0 19 19
- 1.45 0 1 cbr 500 ------- 0 0.0 1.0 19 19
r 1.464 0 1 cbr 500 ------- 0 0.0 1.0 19 19
+ 1.5 0 1 cbr 500 ------- 0 0.0 1.0 20 20
- 1.5 0 1 cbr 500 ------- 0 0.0 1.0 20 20
r 1.514 0 1 cbr 500 ------- 0 0.0 1.0 20 20
+ 1.55 0 1 cbr 500 ------- 0 0.0 1.0 21 21
- 1.55 0 1 cbr 500 ------- 0 0.0 1.0 21 21
r 1.564 0 1 cbr 500 ------- 0 0.0 1.0 21 21
+ 1.6 0 1 cbr 500 ------- 0 0.0 1.0 22 22
- 1.6 0 1 cbr 500 ------- 0 0.0 1.0 22 22
r 1.614 0 1 cbr 500 ------- 0 0.0 1.0 22 22
+ 1.65 0 1 cbr 500 ------- 0 0.0 1.0 23 23
- 1.65 0 1 cbr 500 ------- 0 0.0 1.0 23 23
r 1.664 0 1 cbr 500 ------- 0 0.0 1.0 23 23
+ 1.7 0 1 cbr 500 ------- 0 0.0 1.0 24 24
- 1.7 0 1 cbr 500 ------- 0 0.0 1.0 24 24
r 1.714 0 1 cbr 500 ------- 0 0.0 1.0 24 24
+ 1.75 0 1 cbr 500 ------- 0 0.0 1.0 25 25
- 1.75 0 1 cbr 500 ------- 0 0.0 1.0 25 25
r 1.764 0 1 cbr 500 ------- 0 0.0 1.0 25 25
+ 1.8 0 1 cbr 500 ------- 0 0.0 1.0 26 26
- 1.8 0 1 cbr 500 ------- 0 0.0 1.0 26 26
r 1.814 0 1 cbr 500 ------- 0 0.0 1.0 26 26
+ 1.85 0 1 cbr 500 ------- 0 0.0 1.0 27 27
- 1.85 0 1 cbr 500 ------- 0 0.0 1.0 27 27
r 1.864 0 1 cbr 500 ------- 0 0.0 1.0 27 27
+ 1.9 0 1 cbr 500 ------- 0 0.0 1.0 28 28
- 1.9 0 1 cbr 500 ------- 0 0.0 1.0 28 28
r 1.914 0 1 cbr 500 ------- 0 0.0 1.0 28 28
+ 1.95 0 1 cbr 500 ------- 0 0.0 1.0 29 29
- 1.95 0 1 cbr 500 ------- 0 0.0 1.0 29 29
r 1.964 0 1 cbr 500 ------- 0 0.0 1.0 29 29
+ 2 0 1 cbr 500 ------- 0 0.0 1.0 30 30
- 2 0 1 cbr 500 ------- 0 0.0 1.0 30 30
r 2.014 0 1 cbr 500 ------- 0 0.0 1.0 30 30
+ 2.05 0 1 cbr 500 ------- 0 0.0 1.0 31 31
- 2.05 0 1 cbr 500 ------- 0 0.0 1.0 31 31
r 2.064 0 1 cbr 500 ------- 0 0.0 1.0 31 31
+ 2.1 0 1 cbr 500 ------- 0 0.0 1.0 32 32
- 2.1 0 1 cbr 500 ------- 0 0.0 1.0 32 32
r 2.114 0 1 cbr 500 ------- 0 0.0 1.0 32 32
+ 2.15 0 1 cbr 500 ------- 0 0.0 1.0 33 33
- 2.15 0 1 cbr 500 ------- 0 0.0 1.0 33 33
r 2.164 0 1 cbr 500 ------- 0 0.0 1.0 33 33
+ 2.2 0 1 cbr 500 ------- 0 0.0 1.0 34 34
- 2.2 0 1 cbr 500 ------- 0 0.0 1.0 34 34
r 2.214 0 1 cbr 500 ------- 0 0.0 1.0 34 34
+ 2.25 0 1 cbr 500 ------- 0 0.0 1.0 35 35
- 2.25 0 1 cbr 500 ------- 0 0.0 1.0 35 35
r 2.264 0 1 cbr 500 ------- 0 0.0 1.0 35 35
+ 2.3 0 1 cbr 500 ------- 0 0.0 1.0 36 36
- 2.3 0 1 cbr 500 ------- 0 0.0 1.0 36 36
r 2.314 0 1 cbr 500 ------- 0 0.0 1.0 36 36
+ 2.35 0 1 cbr 500 ------- 0 0.0 1.0 37 37
- 2.35 0 1 cbr 500 ------- 0 0.0 1.0 37 37
r 2.364 0 1 cbr 500 ------- 0 0.0 1.0 37 37
+ 2.4 0 1 cbr 500 ------- 0 0.0 1.0 38 38
- 2.4 0 1 cbr 500 ------- 0 0.0 1.0 38 38
r 2.414 0 1 cbr 500 ------- 0 0.0 1.0 38 38
+ 2.45 0 1 cbr 500 ------- 0 0.0 1.0 39 39
- 2.45 0 1 cbr 500 ------- 0 0.0 1.0 39 39
r 2.464 0 1 cbr 500 ------- 0 0.0 1.0 39 39
+ 2.5 0 1 cbr 500 ------- 0 0.0 1.0 40 40
- 2.5 0 1 cbr 500 ------- 0 0.0 1.0 40 40
r 2.514 0 1 cbr 500 ------- 0 0.0 1.0 40 40
+ 2.55 0 1 cbr 500 ------- 0 0.0 1.0 41 41
- 2.55 0 1 cbr 500 ------- 0 0.0 1.0 41 41
r 2.564 0 1 cbr 500 ------- 0 0.0 1.0 41 41
+ 2.6 0 1 cbr 500 ------- 0 0.0 1.0 42 42
- 2.6 0 1 cbr 500 ------- 0 0.0 1.0 42 42
r 2.614 0 1 cbr 500 ------- 0 0.0 1.0 42 42
+ 2.65 0 1 cbr 500 ------- 0 0.0 1.0 43 43
- 2.65 0 1 cbr 500 ------- 0 0.0 1.0 43 43
r 2.664 0 1 cbr 500 ------- 0 0.0 1.0 43 43
+ 2.7 0 1 cbr 500 ------- 0 0.0 1.0 44 44
- 2.7 0 1 cbr 500 ------- 0 0.0 1.0 44 44
r 2.714 0 1 cbr 500 ------- 0 0.0 1.0 44 44
+ 2.75 0 1 cbr 500 ------- 0 0.0 1.0 45 45
- 2.75 0 1 cbr 500 ------- 0 0.0 1.0 45 45
r 2.764 0 1 cbr 500 ------- 0 0.0 1.0 45 45
+ 2.8 0 1 cbr 500 ------- 0 0.0 1.0 46 46
- 2.8 0 1 cbr 500 ------- 0 0.0 1.0 46 46
r 2.814 0 1 cbr 500 ------- 0 0.0 1.0 46 46
+ 2.85 0 1 cbr 500 ------- 0 0.0 1.0 47 47
- 2.85 0 1 cbr 500 ------- 0 0.0 1.0 47 47
r 2.864 0 1 cbr 500 ------- 0 0.0 1.0 47 47
+ 2.9 0 1 cbr 500 ------- 0 0.0 1.0 48 48
- 2.9 0 1 cbr 500 ------- 0 0.0 1.0 48 48
r 2.914 0 1 cbr 500 ------- 0 0.0 1.0 48 48
+ 2.95 0 1 cbr 500 ------- 0 0.0 1.0 49 49
- 2.95 0 1 cbr 500 ------- 0 0.0 1.0 49 49
r 2.964 0 1 cbr 500 ------- 0 0.0 1.0 49 49
+ 3 0 1 cbr 500 ------- 0 0.0 1.0 50 50
- 3 0 1 cbr 500 ------- 0 0.0 1.0 50 50
r 3.014 0 1 cbr 500 ------- 0 0.0 1.0 50 50
+ 3.05 0 1 cbr 500 ------- 0 0.0 1.0 51 51
- 3.05 0 1 cbr 500 ------- 0 0.0 1.0 51 51
r 3.064 0 1 cbr 500 ------- 0 0.0 1.0 51 51
+ 3.1 0 1 cbr 500 ------- 0 0.0 1.0 52 52
- 3.1 0 1 cbr 500 ------- 0 0.0 1.0 52 52
r 3.114 0 1 cbr 500 ------- 0 0.0 1.0 52 52
+ 3.15 0 1 cbr 500 ------- 0 0.0 1.0 53 53
- 3.15 0 1 cbr 500 ------- 0 0.0 1.0 53 53
r 3.164 0 1 cbr 500 ------- 0 0.0 1.0 53 53
+ 3.2 0 1 cbr 500 ------- 0 0.0 1.0 54 54
- 3.2 0 1 cbr 500 ------- 0 0.0 1.0 54 54
r 3.214 0 1 cbr 500 ------- 0 0.0 1.0 54 54
+ 3.25 0 1 cbr 500 ------- 0 0.0 1.0 55 55
- 3.25 0 1 cbr 500 ------- 0 0.0 1.0 55 55
r 3.264 0 1 cbr 500 ------- 0 0.0 1.0 55 55
+ 3.3 0 1 cbr 500 ------- 0 0.0 1.0 56 56
- 3.3 0 1 cbr 500 ------- 0 0.0 1.0 56 56
r 3.314 0 1 cbr 500 ------- 0 0.0 1.0 56 56
+ 3.35 0 1 cbr 500 ------- 0 0.0 1.0 57 57
- 3.35 0 1 cbr 500 ------- 0 0.0 1.0 57 57
r 3.364 0 1 cbr 500 ------- 0 0.0 1.0 57 57
+ 3.4 0 1 cbr 500 ------- 0 0.0 1.0 58 58
- 3.4 0 1 cbr 500 ------- 0 0.0 1.0 58 58
r 3.414 0 1 cbr 500 ------- 0 0.0 1.0 58 58
+ 3.45 0 1 cbr 500 ------- 0 0.0 1.0 59 59
- 3.45 0 1 cbr 500 ------- 0 0.0 1.0 59 59
r 3.464 0 1 cbr 500 ------- 0 0.0 1.0 59 59
+ 3.5 0 1 cbr 500 ------- 0 0.0 1.0 60 60
- 3.5 0 1 cbr 500 ------- 0 0.0 1.0 60 60
r 3.514 0 1 cbr 500 ------- 0 0.0 1.0 60 60
+ 3.55 0 1 cbr 500 ------- 0 0.0 1.0 61 61
- 3.55 0 1 cbr 500 ------- 0 0.0 1.0 61 61
r 3.564 0 1 cbr 500 ------- 0 0.0 1.0 61 61
+ 3.6 0 1 cbr 500 ------- 0 0.0 1.0 62 62
- 3.6 0 1 cbr 500 ------- 0 0.0 1.0 62 62
r 3.614 0 1 cbr 500 ------- 0 0.0 1.0 62 62
+ 3.65 0 1 cbr 500 ------- 0 0.0 1.0 63 63
- 3.65 0 1 cbr 500 ------- 0 0.0 1.0 63 63
r 3.664 0 1 cbr 500 ------- 0 0.0 1.0 63 63
+ 3.7 0 1 cbr 500 ------- 0 0.0 1.0 64 64
- 3.7 0 1 cbr 500 ------- 0 0.0 1.0 64 64
r 3.714 0 1 cbr 500 ------- 0 0.0 1.0 64 64
+ 3.75 0 1 cbr 500 ------- 0 0.0 1.0 65 65
- 3.75 0 1 cbr 500 ------- 0 0.0 1.0 65 65
r 3.764 0 1 cbr 500 ------- 0 0.0 1.0 65 65
+ 3.8 0 1 cbr 500 ------- 0 0.0 1.0 66 66
- 3.8 0 1 cbr 500 ------- 0 0.0 1.0 66 66
r 3.814 0 1 cbr 500 ------- 0 0.0 1.0 66 66
+ 3.85 0 1 cbr 500 ------- 0 0.0 1.0 67 67
- 3.85 0 1 cbr 500 ------- 0 0.0 1.0 67 67
r 3.864 0 1 cbr 500 ------- 0 0.0 1.0 67 67
+ 3.9 0 1 cbr 500 ------- 0 0.0 1.0 68 68
- 3.9 0 1 cbr 500 ------- 0 0.0 1.0 68 68
r 3.914 0 1 cbr 500 ------- 0 0.0 1.0 68 68
+ 3.95 0 1 cbr 500 ------- 0 0.0 1.0 69 69
- 3.95 0 1 cbr 500 ------- 0 0.0 1.0 69 69
r 3.964 0 1 cbr 500 ------- 0 0.0 1.0 69 69
+ 4 0 1 cbr 500 ------- 0 0.0 1.0 70 70
- 4 0 1 cbr 500 ------- 0 0.0 1.0 70 70
r 4.014 0 1 cbr 500 ------- 0 0.0 1.0 70 70
+ 4.05 0 1 cbr 500 ------- 0 0.0 1.0 71 71
- 4.05 0 1 cbr 500 ------- 0 0.0 1.0 71 71
r 4.064 0 1 cbr 500 ------- 0 0.0 1.0 71 71
+ 4.1 0 1 cbr 500 ------- 0 0.0 1.0 72 72
- 4.1 0 1 cbr 500 ------- 0 0.0 1.0 72 72
r 4.114 0 1 cbr 500 ------- 0 0.0 1.0 72 72
+ 4.15 0 1 cbr 500 ------- 0 0.0 1.0 73 73
- 4.15 0 1 cbr 500 ------- 0 0.0 1.0 73 73
r 4.164 0 1 cbr 500 ------- 0 0.0 1.0 73 73
+ 4.2 0 1 cbr 500 ------- 0 0.0 1.0 74 74
- 4.2 0 1 cbr 500 ------- 0 0.0 1.0 74 74
r 4.214 0 1 cbr 500 ------- 0 0.0 1.0 74 74
+ 4.25 0 1 cbr 500 ------- 0 0.0 1.0 75 75
- 4.25 0 1 cbr 500 ------- 0 0.0 1.0 75 75
r 4.264 0 1 cbr 500 ------- 0 0.0 1.0 75 75
+ 4.3 0 1 cbr 500 ------- 0 0.0 1.0 76 76
- 4.3 0 1 cbr 500 ------- 0 0.0 1.0 76 76
r 4.314 0 1 cbr 500 ------- 0 0.0 1.0 76 76
+ 4.35 0 1 cbr 500 ------- 0 0.0 1.0 77 77
- 4.35 0 1 cbr 500 ------- 0 0.0 1.0 77 77
r 4.364 0 1 cbr 500 ------- 0 0.0 1.0 77 77
+ 4.4 0 1 cbr 500 ------- 0 0.0 1.0 78 78
- 4.4 0 1 cbr 500 ------- 0 0.0 1.0 78 78
r 4.414 0 1 cbr 500 ------- 0 0.0 1.0 78 78
+ 4.45 0 1 cbr 500 ------- 0 0.0 1.0 79 79
- 4.45 0 1 cbr 500 ------- 0 0.0 1.0 79 79
r 4.464 0 1 cbr 500 ------- 0 0.0 1.0 79 79
+ 4.5 0 1 cbr 500 ------- 0 0.0 1.0 80 80
- 4.5 0 1 cbr 500 ------- 0 0.0 1.0 80 80
r 4.514 0 1 cbr 500 ------- 0 0.0 1.0 80 80
