n -t 0 -s 0 -S DLABEL -l "STEFAN" -L ""
n -t 0 -s 1 -S DLABEL -l "DAMON" -L ""
V -t * -v 1.0a5 -a 0
A -t * -n 1 -p 0 -o 0x7fffffff -c 30 -a 1
A -t * -h 1 -m 1073741823 -s 0
n -t * -a 0 -s 0 -S UP -v circle -c red -i red
n -t * -a 1 -s 1 -S UP -v circle -c red -i red
l -t * -s 0 -d 1 -S UP -r 1000000 -D 0.01 -c black
